 12
10002   Energy =     -116.5904186160  kJ/mol
O   -1.4765540   1.2149668  -0.2025032
H   -0.5371585   1.3987228  -0.2038704
H   -1.8482055   1.8692090   0.3891676
O   -1.2079748  -1.4926350  -0.1010018
H   -1.4015437  -0.5553549  -0.1174060
H   -1.7127980  -1.8547246  -0.8292028
O    1.4529489  -1.1962243   0.3941453
H    0.5373779  -1.3988970   0.2020893
H    1.6559767  -1.7165787   1.1714760
O    1.2315799   1.4738925  -0.0906403
H    1.4013243   0.5555291   0.1191871
H    1.9050268   1.7020943  -0.7314407
